 &FCI NORB=   6,NELEC=   2,MS2=   0,
  ORBSYM=1,1,1,1,1,1,
  ISYM=   1,
  IUHF=1,
  IGENERAL=1,
  ITGENERAL=1,
 &END
      0.0000000000000000   0   0   0   0
      0.1250000000000000   2   5   2   1
     -0.1250000000000000   2   5   4   2
      0.2500000000000000   3   3   4   1
      0.0000000000000000   0   0   0   0
      0.0000000000000000   0   0   0   0
      0.0000000000000000   0   0   0   0
      0.0000000000000000   0   0   0   0
      0.0000000000000000   0   0   0   0
